
     Program PWSCF v.6.8 starts on  3Dec2023 at 10:31:41 

     This program is part of the open-source Quantum ESPRESSO suite
     for quantum simulation of materials; please cite
         "P. Giannozzi et al., J. Phys.:Condens. Matter 21 395502 (2009);
         "P. Giannozzi et al., J. Phys.:Condens. Matter 29 465901 (2017);
         "P. Giannozzi et al., J. Chem. Phys. 152 154105 (2020);
          URL http://www.quantum-espresso.org", 
     in publications or presentations arising from this work. More details at
     http://www.quantum-espresso.org/quote

     Serial version
     2370 MiB available memory on the printing compute node when the environment starts

     Waiting for input...
     Reading input from standard input

     Current dimensions of program PWSCF are:
     Max number of different atomic species (ntypx) = 10
     Max number of k-points (npk) =  40000
     Max angular momentum in pseudopotentials (lmaxx) =  4

     gamma-point specific algorithms are used

     G-vector sticks info
     --------------------
     sticks:   dense  smooth     PW     G-vecs:    dense   smooth      PW
     Sum       13053   13053   3265               929743   929743  116125

     Using Slab Decomposition



     bravais-lattice index     =            6
     lattice parameter (alat)  =      32.0000  a.u.
     unit-cell volume          =   27197.4400 (a.u.)^3
     number of atoms/cell      =           12
     number of atomic types    =            2
     number of electrons       =        30.00
     number of Kohn-Sham states=           15
     kinetic-energy cutoff     =      40.0000  Ry
     charge density cutoff     =     160.0000  Ry
     scf convergence threshold =      1.0E-10
     mixing beta               =       0.7000
     number of iterations used =            8  plain     mixing
     Exchange-correlation= PBE
                           (   1   4   3   4   0   0   0)

     celldm(1)=  32.000000  celldm(2)=   0.000000  celldm(3)=   0.830000
     celldm(4)=   0.000000  celldm(5)=   0.000000  celldm(6)=   0.000000

     crystal axes: (cart. coord. in units of alat)
               a(1) = (   1.000000   0.000000   0.000000 )  
               a(2) = (   0.000000   1.000000   0.000000 )  
               a(3) = (   0.000000   0.000000   0.830000 )  

     reciprocal axes: (cart. coord. in units 2 pi/alat)
               b(1) = (  1.000000  0.000000  0.000000 )  
               b(2) = (  0.000000  1.000000  0.000000 )  
               b(3) = (  0.000000  0.000000  1.204819 )  


     PseudoPot. # 1 for C  read from file:
     /opt/qe/bin/pp/C.pbe-n-rrkjus_psl.1.0.0.UPF
     MD5 check sum: 1fdd950c42eb37d8afe3dd2f8d12311e
     Pseudo is Ultrasoft + core correction, Zval =  4.0
     Generated using &quot;atomic&quot; code by A. Dal Corso  v.6.3MaX
     Using radial grid of 1073 points,  4 beta functions with: 
                l(1) =   0
                l(2) =   0
                l(3) =   1
                l(4) =   1
     Q(r) pseudized with 0 coefficients 


     PseudoPot. # 2 for H  read from file:
     /opt/qe/bin/pp/H.pbe-rrkjus_psl.1.0.0.UPF
     MD5 check sum: 3f4114867bd07edc7f1424d066fc1888
     Pseudo is Ultrasoft, Zval =  1.0
     Generated using &quot;atomic&quot; code by A. Dal Corso  v.6.3MaX
     Using radial grid of  929 points,  2 beta functions with: 
                l(1) =   0
                l(2) =   0
     Q(r) pseudized with 0 coefficients 


     atomic species   valence    mass     pseudopotential
        C              4.00    12.01070     C ( 1.00)
        H              1.00     1.00784     H ( 1.00)

     No symmetry found



   Cartesian axes

     site n.     atom                  positions (alat units)
         1           C   tau(   1) = (   0.3327634   0.3733372   0.2952697  )
         2           C   tau(   2) = (   0.4043485   0.4972565   0.2952697  )
         3           C   tau(   3) = (   0.4759200   0.4559443   0.2952697  )
         4           C   tau(   4) = (   0.4759147   0.3733258   0.2952697  )
         5           C   tau(   5) = (   0.4043360   0.3320243   0.2952697  )
         6           C   tau(   6) = (   0.3327698   0.4559561   0.2952697  )
         7           H   tau(   7) = (   0.4043556   0.5624374   0.2952697  )
         8           H   tau(   8) = (   0.5323692   0.4885290   0.2952697  )
         9           H   tau(   9) = (   0.5323614   0.3407364   0.2952697  )
        10           H   tau(  10) = (   0.4043317   0.2668437   0.2952697  )
        11           H   tau(  11) = (   0.2763126   0.3407557   0.2952697  )
        12           H   tau(  12) = (   0.2763252   0.4885497   0.2952697  )

     number of k points=     1
                       cart. coord. in units 2pi/alat
        k(    1) = (   0.0000000   0.0000000   0.0000000), wk =   2.0000000

     Dense  grid:   464872 G-vectors     FFT dimensions: ( 135, 135, 108)

     Estimated max dynamical RAM per process >     757.27 MB

     Check: negative core charge=   -0.000002

     Initial potential from superposition of free atoms

     starting charge   29.99969, renormalised to   30.00000

     negative rho (up, down):  2.435E-02 0.000E+00
     Starting wfcs are   30 randomized atomic wfcs

     total cpu time spent up to now is       15.7 secs

     Self-consistent Calculation

     iteration #  1     ecut=    40.00 Ry     beta= 0.70
     Davidson diagonalization with overlap
     ethr =  1.00E-02,  avg # of iterations =  2.0

     negative rho (up, down):  3.674E-02 0.000E+00

     total cpu time spent up to now is       28.0 secs

     total energy              =     -81.22652008 Ry
     estimated scf accuracy    <       1.40238958 Ry

     iteration #  2     ecut=    40.00 Ry     beta= 0.70
     Davidson diagonalization with overlap
     ethr =  4.67E-03,  avg # of iterations =  2.0

     negative rho (up, down):  3.742E-02 0.000E+00

     total cpu time spent up to now is       41.2 secs

     total energy              =     -81.51216018 Ry
     estimated scf accuracy    <       0.35975774 Ry

     iteration #  3     ecut=    40.00 Ry     beta= 0.70
     Davidson diagonalization with overlap
     ethr =  1.20E-03,  avg # of iterations =  2.0

     negative rho (up, down):  3.953E-02 0.000E+00

     total cpu time spent up to now is       52.4 secs

     total energy              =     -81.58948717 Ry
     estimated scf accuracy    <       0.01161627 Ry

     iteration #  4     ecut=    40.00 Ry     beta= 0.70
     Davidson diagonalization with overlap
     ethr =  3.87E-05,  avg # of iterations =  2.0

     negative rho (up, down):  3.992E-02 0.000E+00

     total cpu time spent up to now is       63.5 secs

     total energy              =     -81.59113460 Ry
     estimated scf accuracy    <       0.00011907 Ry

     iteration #  5     ecut=    40.00 Ry     beta= 0.70
     Davidson diagonalization with overlap
     ethr =  3.97E-07,  avg # of iterations =  3.0

     negative rho (up, down):  4.000E-02 0.000E+00

     total cpu time spent up to now is       76.3 secs

     total energy              =     -81.59117828 Ry
     estimated scf accuracy    <       0.00003171 Ry

     iteration #  6     ecut=    40.00 Ry     beta= 0.70
     Davidson diagonalization with overlap
     ethr =  1.06E-07,  avg # of iterations =  2.0

     negative rho (up, down):  4.000E-02 0.000E+00

     total cpu time spent up to now is       88.2 secs

     total energy              =     -81.59118474 Ry
     estimated scf accuracy    <       0.00000053 Ry

     iteration #  7     ecut=    40.00 Ry     beta= 0.70
     Davidson diagonalization with overlap
     ethr =  1.78E-09,  avg # of iterations =  2.0

     negative rho (up, down):  4.000E-02 0.000E+00

     total cpu time spent up to now is      102.3 secs

     total energy              =     -81.59118480 Ry
     estimated scf accuracy    <       0.00000007 Ry

     iteration #  8     ecut=    40.00 Ry     beta= 0.70
     Davidson diagonalization with overlap
     ethr =  2.24E-10,  avg # of iterations =  2.0

     negative rho (up, down):  4.000E-02 0.000E+00

     total cpu time spent up to now is      114.3 secs

     total energy              =     -81.59118482 Ry
     estimated scf accuracy    <          6.5E-10 Ry

     iteration #  9     ecut=    40.00 Ry     beta= 0.70
     Davidson diagonalization with overlap
     ethr =  2.15E-12,  avg # of iterations =  3.0

     negative rho (up, down):  4.000E-02 0.000E+00

     total cpu time spent up to now is      129.2 secs

     End of self-consistent calculation

          k = 0.0000 0.0000 0.0000 ( 58063 PWs)   bands (ev):

   -21.0037 -18.2178 -18.2133 -14.5949 -14.5926 -12.6338 -10.9242 -10.7263
   -10.0083 -10.0033  -8.8834  -8.0373  -8.0364  -6.1674  -6.1644

     highest occupied level (ev):    -6.1644

!    total energy              =     -81.59118482 Ry
     estimated scf accuracy    <          9.2E-11 Ry

     The total energy is the sum of the following terms:
     one-electron contribution =    -350.76900959 Ry
     hartree contribution      =     178.87145629 Ry
     xc contribution           =     -31.84586591 Ry
     ewald contribution        =     122.15223439 Ry

     convergence has been achieved in   9 iterations

     Writing output data file ./outdir/C6H6.save/

     init_run     :     14.87s CPU     15.47s WALL (       1 calls)
     electrons    :    110.31s CPU    113.60s WALL (       1 calls)

     Called by init_run:
     wfcinit      :      4.44s CPU      4.47s WALL (       1 calls)
     potinit      :      4.51s CPU      4.73s WALL (       1 calls)
     hinit0       :      4.59s CPU      4.73s WALL (       1 calls)

     Called by electrons:
     c_bands      :     59.51s CPU     59.82s WALL (       9 calls)
     sum_band     :     18.43s CPU     19.45s WALL (       9 calls)
     v_of_rho     :     20.29s CPU     21.13s WALL (      10 calls)
     newd         :     11.99s CPU     13.26s WALL (      10 calls)
     mix_rho      :      2.09s CPU      2.14s WALL (       9 calls)

     Called by c_bands:
     init_us_2    :      0.67s CPU      0.67s WALL (      19 calls)
     regterg      :     58.51s CPU     58.82s WALL (       9 calls)

     Called by *egterg:
     rdiaghg      :      0.01s CPU      0.03s WALL (      29 calls)
     h_psi        :     46.11s CPU     46.17s WALL (      30 calls)
     s_psi        :      4.70s CPU      4.71s WALL (      30 calls)
     g_psi        :      0.13s CPU      0.13s WALL (      20 calls)

     Called by h_psi:
     h_psi:calbec :      6.97s CPU      6.98s WALL (      30 calls)
     vloc_psi     :     33.97s CPU     34.02s WALL (      30 calls)
     add_vuspsi   :      5.06s CPU      5.06s WALL (      30 calls)

     General routines
     calbec       :      9.20s CPU      9.22s WALL (      39 calls)
     fft          :      8.88s CPU      9.04s WALL (      90 calls)
     ffts         :      0.83s CPU      0.83s WALL (       9 calls)
     fftw         :     35.07s CPU     35.12s WALL (     516 calls)


     PWSCF        :   2m 5.45s CPU   2m 9.47s WALL


   This run was terminated on:  10:33:51   3Dec2023            

=------------------------------------------------------------------------------=
   JOB DONE.
=------------------------------------------------------------------------------=
